# vtk DataFile Version 3.0
Solid I-Beam S, Mises Envelope (max abs)
ASCII
DATASET UNSTRUCTURED_GRID
POINTS 2415 float
0.0000 -14.0000 11.0000
0.0000 -10.0000 11.0000
0.0000 -10.0000 13.0000
0.0000 -14.0000 13.0000
0.0000 -6.0000 11.0000
0.0000 -6.0000 13.0000
0.0000 -2.0000 11.0000
0.0000 -2.0000 13.0000
0.0000 0.0000 11.0000
0.0000 0.0000 13.0000
0.0000 2.0000 11.0000
0.0000 2.0000 13.0000
0.0000 6.0000 11.0000
0.0000 6.0000 13.0000
0.0000 10.0000 11.0000
0.0000 10.0000 13.0000
0.0000 14.0000 11.0000
0.0000 14.0000 13.0000
0.0000 -10.0000 15.0000
0.0000 -14.0000 15.0000
0.0000 -6.0000 15.0000
0.0000 -2.0000 15.0000
0.0000 0.0000 15.0000
0.0000 2.0000 15.0000
0.0000 6.0000 15.0000
0.0000 10.0000 15.0000
0.0000 14.0000 15.0000
0.0000 -14.0000 -15.0000
0.0000 -10.0000 -15.0000
0.0000 -10.0000 -13.0000
0.0000 -14.0000 -13.0000
0.0000 -6.0000 -15.0000
0.0000 -6.0000 -13.0000
0.0000 -2.0000 -15.0000
0.0000 -2.0000 -13.0000
0.0000 0.0000 -15.0000
0.0000 0.0000 -13.0000
0.0000 2.0000 -15.0000
0.0000 2.0000 -13.0000
0.0000 6.0000 -15.0000
0.0000 6.0000 -13.0000
0.0000 10.0000 -15.0000
0.0000 10.0000 -13.0000
0.0000 14.0000 -15.0000
0.0000 14.0000 -13.0000
0.0000 -10.0000 -11.0000
0.0000 -14.0000 -11.0000
0.0000 -6.0000 -11.0000
0.0000 -2.0000 -11.0000
0.0000 0.0000 -11.0000
0.0000 2.0000 -11.0000
0.0000 6.0000 -11.0000
0.0000 10.0000 -11.0000
0.0000 14.0000 -11.0000
0.0000 0.0000 -7.3333
0.0000 -2.0000 -7.3333
0.0000 2.0000 -7.3333
0.0000 0.0000 -3.6667
0.0000 -2.0000 -3.6667
0.0000 2.0000 -3.6667
0.0000 0.0000 0.0000
0.0000 -2.0000 0.0000
0.0000 2.0000 0.0000
0.0000 0.0000 3.6667
0.0000 -2.0000 3.6667
0.0000 2.0000 3.6667
0.0000 0.0000 7.3333
0.0000 -2.0000 7.3333
0.0000 2.0000 7.3333
8.2353 -14.0000 11.0000
8.2353 -10.0000 11.0000
8.2353 -10.0000 13.0000
8.2353 -14.0000 13.0000
8.2353 -6.0000 11.0000
8.2353 -6.0000 13.0000
8.2353 -2.0000 11.0000
8.2353 -2.0000 13.0000
8.2353 0.0000 11.0000
8.2353 0.0000 13.0000
8.2353 2.0000 11.0000
8.2353 2.0000 13.0000
8.2353 6.0000 11.0000
8.2353 6.0000 13.0000
8.2353 10.0000 11.0000
8.2353 10.0000 13.0000
8.2353 14.0000 11.0000
8.2353 14.0000 13.0000
8.2353 -10.0000 15.0000
8.2353 -14.0000 15.0000
8.2353 -6.0000 15.0000
8.2353 -2.0000 15.0000
8.2353 0.0000 15.0000
8.2353 2.0000 15.0000
8.2353 6.0000 15.0000
8.2353 10.0000 15.0000
8.2353 14.0000 15.0000
8.2353 -14.0000 -15.0000
8.2353 -10.0000 -15.0000
8.2353 -10.0000 -13.0000
8.2353 -14.0000 -13.0000
8.2353 -6.0000 -15.0000
8.2353 -6.0000 -13.0000
8.2353 -2.0000 -15.0000
8.2353 -2.0000 -13.0000
8.2353 0.0000 -15.0000
8.2353 0.0000 -13.0000
8.2353 2.0000 -15.0000
8.2353 2.0000 -13.0000
8.2353 6.0000 -15.0000
8.2353 6.0000 -13.0000
8.2353 10.0000 -15.0000
8.2353 10.0000 -13.0000
8.2353 14.0000 -15.0000
8.2353 14.0000 -13.0000
8.2353 -10.0000 -11.0000
8.2353 -14.0000 -11.0000
8.2353 -6.0000 -11.0000
8.2353 -2.0000 -11.0000
8.2353 0.0000 -11.0000
8.2353 2.0000 -11.0000
8.2353 6.0000 -11.0000
8.2353 10.0000 -11.0000
8.2353 14.0000 -11.0000
8.2353 0.0000 -7.3333
8.2353 -2.0000 -7.3333
8.2353 2.0000 -7.3333
8.2353 0.0000 -3.6667
8.2353 -2.0000 -3.6667
8.2353 2.0000 -3.6667
8.2353 0.0000 0.0000
8.2353 -2.0000 0.0000
8.2353 2.0000 0.0000
8.2353 0.0000 3.6667
8.2353 -2.0000 3.6667
8.2353 2.0000 3.6667
8.2353 0.0000 7.3333
8.2353 -2.0000 7.3333
8.2353 2.0000 7.3333
16.4706 -14.0000 11.0000
16.4706 -10.0000 11.0000
16.4706 -10.0000 13.0000
16.4706 -14.0000 13.0000
16.4706 -6.0000 11.0000
16.4706 -6.0000 13.0000
16.4706 -2.0000 11.0000
16.4706 -2.0000 13.0000
16.4706 0.0000 11.0000
16.4706 0.0000 13.0000
16.4706 2.0000 11.0000
16.4706 2.0000 13.0000
16.4706 6.0000 11.0000
16.4706 6.0000 13.0000
16.4706 10.0000 11.0000
16.4706 10.0000 13.0000
16.4706 14.0000 11.0000
16.4706 14.0000 13.0000
16.4706 -10.0000 15.0000
16.4706 -14.0000 15.0000
16.4706 -6.0000 15.0000
16.4706 -2.0000 15.0000
16.4706 0.0000 15.0000
16.4706 2.0000 15.0000
16.4706 6.0000 15.0000
16.4706 10.0000 15.0000
16.4706 14.0000 15.0000
16.4706 -14.0000 -15.0000
16.4706 -10.0000 -15.0000
16.4706 -10.0000 -13.0000
16.4706 -14.0000 -13.0000
16.4706 -6.0000 -15.0000
16.4706 -6.0000 -13.0000
16.4706 -2.0000 -15.0000
16.4706 -2.0000 -13.0000
16.4706 0.0000 -15.0000
16.4706 0.0000 -13.0000
16.4706 2.0000 -15.0000
16.4706 2.0000 -13.0000
16.4706 6.0000 -15.0000
16.4706 6.0000 -13.0000
16.4706 10.0000 -15.0000
16.4706 10.0000 -13.0000
16.4706 14.0000 -15.0000
16.4706 14.0000 -13.0000
16.4706 -10.0000 -11.0000
16.4706 -14.0000 -11.0000
16.4706 -6.0000 -11.0000
16.4706 -2.0000 -11.0000
16.4706 0.0000 -11.0000
16.4706 2.0000 -11.0000
16.4706 6.0000 -11.0000
16.4706 10.0000 -11.0000
16.4706 14.0000 -11.0000
16.4706 0.0000 -7.3333
16.4706 -2.0000 -7.3333
16.4706 2.0000 -7.3333
16.4706 0.0000 -3.6667
16.4706 -2.0000 -3.6667
16.4706 2.0000 -3.6667
16.4706 0.0000 0.0000
16.4706 -2.0000 0.0000
16.4706 2.0000 0.0000
16.4706 0.0000 3.6667
16.4706 -2.0000 3.6667
16.4706 2.0000 3.6667
16.4706 0.0000 7.3333
16.4706 -2.0000 7.3333
16.4706 2.0000 7.3333
24.7059 -14.0000 11.0000
24.7059 -10.0000 11.0000
24.7059 -10.0000 13.0000
24.7059 -14.0000 13.0000
24.7059 -6.0000 11.0000
24.7059 -6.0000 13.0000
24.7059 -2.0000 11.0000
24.7059 -2.0000 13.0000
24.7059 0.0000 11.0000
24.7059 0.0000 13.0000
24.7059 2.0000 11.0000
24.7059 2.0000 13.0000
24.7059 6.0000 11.0000
24.7059 6.0000 13.0000
24.7059 10.0000 11.0000
24.7059 10.0000 13.0000
24.7059 14.0000 11.0000
24.7059 14.0000 13.0000
24.7059 -10.0000 15.0000
24.7059 -14.0000 15.0000
24.7059 -6.0000 15.0000
24.7059 -2.0000 15.0000
24.7059 0.0000 15.0000
24.7059 2.0000 15.0000
24.7059 6.0000 15.0000
24.7059 10.0000 15.0000
24.7059 14.0000 15.0000
24.7059 -14.0000 -15.0000
24.7059 -10.0000 -15.0000
24.7059 -10.0000 -13.0000
24.7059 -14.0000 -13.0000
24.7059 -6.0000 -15.0000
24.7059 -6.0000 -13.0000
24.7059 -2.0000 -15.0000
24.7059 -2.0000 -13.0000
24.7059 0.0000 -15.0000
24.7059 0.0000 -13.0000
24.7059 2.0000 -15.0000
24.7059 2.0000 -13.0000
24.7059 6.0000 -15.0000
24.7059 6.0000 -13.0000
24.7059 10.0000 -15.0000
24.7059 10.0000 -13.0000
24.7059 14.0000 -15.0000
24.7059 14.0000 -13.0000
24.7059 -10.0000 -11.0000
24.7059 -14.0000 -11.0000
24.7059 -6.0000 -11.0000
24.7059 -2.0000 -11.0000
24.7059 0.0000 -11.0000
24.7059 2.0000 -11.0000
24.7059 6.0000 -11.0000
24.7059 10.0000 -11.0000
24.7059 14.0000 -11.0000
24.7059 0.0000 -7.3333
24.7059 -2.0000 -7.3333
24.7059 2.0000 -7.3333
24.7059 0.0000 -3.6667
24.7059 -2.0000 -3.6667
24.7059 2.0000 -3.6667
24.7059 0.0000 0.0000
24.7059 -2.0000 0.0000
24.7059 2.0000 0.0000
24.7059 0.0000 3.6667
24.7059 -2.0000 3.6667
24.7059 2.0000 3.6667
24.7059 0.0000 7.3333
24.7059 -2.0000 7.3333
24.7059 2.0000 7.3333
32.9412 -14.0000 11.0000
32.9412 -10.0000 11.0000
32.9412 -10.0000 13.0000
32.9412 -14.0000 13.0000
32.9412 -6.0000 11.0000
32.9412 -6.0000 13.0000
32.9412 -2.0000 11.0000
32.9412 -2.0000 13.0000
32.9412 0.0000 11.0000
32.9412 0.0000 13.0000
32.9412 2.0000 11.0000
32.9412 2.0000 13.0000
32.9412 6.0000 11.0000
32.9412 6.0000 13.0000
32.9412 10.0000 11.0000
32.9412 10.0000 13.0000
32.9412 14.0000 11.0000
32.9412 14.0000 13.0000
32.9412 -10.0000 15.0000
32.9412 -14.0000 15.0000
32.9412 -6.0000 15.0000
32.9412 -2.0000 15.0000
32.9412 0.0000 15.0000
32.9412 2.0000 15.0000
32.9412 6.0000 15.0000
32.9412 10.0000 15.0000
32.9412 14.0000 15.0000
32.9412 -14.0000 -15.0000
32.9412 -10.0000 -15.0000
32.9412 -10.0000 -13.0000
32.9412 -14.0000 -13.0000
32.9412 -6.0000 -15.0000
32.9412 -6.0000 -13.0000
32.9412 -2.0000 -15.0000
32.9412 -2.0000 -13.0000
32.9412 0.0000 -15.0000
32.9412 0.0000 -13.0000
32.9412 2.0000 -15.0000
32.9412 2.0000 -13.0000
32.9412 6.0000 -15.0000
32.9412 6.0000 -13.0000
32.9412 10.0000 -15.0000
32.9412 10.0000 -13.0000
32.9412 14.0000 -15.0000
32.9412 14.0000 -13.0000
32.9412 -10.0000 -11.0000
32.9412 -14.0000 -11.0000
32.9412 -6.0000 -11.0000
32.9412 -2.0000 -11.0000
32.9412 0.0000 -11.0000
32.9412 2.0000 -11.0000
32.9412 6.0000 -11.0000
32.9412 10.0000 -11.0000
32.9412 14.0000 -11.0000
32.9412 0.0000 -7.3333
32.9412 -2.0000 -7.3333
32.9412 2.0000 -7.3333
32.9412 0.0000 -3.6667
32.9412 -2.0000 -3.6667
32.9412 2.0000 -3.6667
32.9412 0.0000 0.0000
32.9412 -2.0000 0.0000
32.9412 2.0000 0.0000
32.9412 0.0000 3.6667
32.9412 -2.0000 3.6667
32.9412 2.0000 3.6667
32.9412 0.0000 7.3333
32.9412 -2.0000 7.3333
32.9412 2.0000 7.3333
41.1765 -14.0000 11.0000
41.1765 -10.0000 11.0000
41.1765 -10.0000 13.0000
41.1765 -14.0000 13.0000
41.1765 -6.0000 11.0000
41.1765 -6.0000 13.0000
41.1765 -2.0000 11.0000
41.1765 -2.0000 13.0000
41.1765 0.0000 11.0000
41.1765 0.0000 13.0000
41.1765 2.0000 11.0000
41.1765 2.0000 13.0000
41.1765 6.0000 11.0000
41.1765 6.0000 13.0000
41.1765 10.0000 11.0000
41.1765 10.0000 13.0000
41.1765 14.0000 11.0000
41.1765 14.0000 13.0000
41.1765 -10.0000 15.0000
41.1765 -14.0000 15.0000
41.1765 -6.0000 15.0000
41.1765 -2.0000 15.0000
41.1765 0.0000 15.0000
41.1765 2.0000 15.0000
41.1765 6.0000 15.0000
41.1765 10.0000 15.0000
41.1765 14.0000 15.0000
41.1765 -14.0000 -15.0000
41.1765 -10.0000 -15.0000
41.1765 -10.0000 -13.0000
41.1765 -14.0000 -13.0000
41.1765 -6.0000 -15.0000
41.1765 -6.0000 -13.0000
41.1765 -2.0000 -15.0000
41.1765 -2.0000 -13.0000
41.1765 0.0000 -15.0000
41.1765 0.0000 -13.0000
41.1765 2.0000 -15.0000
41.1765 2.0000 -13.0000
41.1765 6.0000 -15.0000
41.1765 6.0000 -13.0000
41.1765 10.0000 -15.0000
41.1765 10.0000 -13.0000
41.1765 14.0000 -15.0000
41.1765 14.0000 -13.0000
41.1765 -10.0000 -11.0000
41.1765 -14.0000 -11.0000
41.1765 -6.0000 -11.0000
41.1765 -2.0000 -11.0000
41.1765 0.0000 -11.0000
41.1765 2.0000 -11.0000
41.1765 6.0000 -11.0000
41.1765 10.0000 -11.0000
41.1765 14.0000 -11.0000
41.1765 0.0000 -7.3333
41.1765 -2.0000 -7.3333
41.1765 2.0000 -7.3333
41.1765 0.0000 -3.6667
41.1765 -2.0000 -3.6667
41.1765 2.0000 -3.6667
41.1765 0.0000 0.0000
41.1765 -2.0000 0.0000
41.1765 2.0000 0.0000
41.1765 0.0000 3.6667
41.1765 -2.0000 3.6667
41.1765 2.0000 3.6667
41.1765 0.0000 7.3333
41.1765 -2.0000 7.3333
41.1765 2.0000 7.3333
49.4118 -14.0000 11.0000
49.4118 -10.0000 11.0000
[...]
POINT_DATA 2415
SCALARS S_Mises float 1
LOOKUP_TABLE default
0.33419
0.33420
0.37129
0.37129
0.33420
0.37129
0.33420
0.37129
0.33420
0.37129
0.33420
0.37129
0.33420
0.37129
0.33420
0.37129
0.33419
0.37129
0.40973
0.40973
0.40973
0.40974
0.40974
0.40974
0.40973
0.40973
0.40973
0.01872
0.01872
0.02545
0.02545
0.01872
0.02545
0.01872
0.02545
0.01872
0.02545
0.01872
0.02545
0.01872
0.02545
0.01872
0.02545
0.01872
0.02545
0.03775
0.03775
0.03775
0.03775
0.03775
0.03775
0.03775
0.03775
0.03775
0.06923
0.06923
0.06923
0.10951
0.10951
0.10951
0.15696
0.15696
0.15696
0.21064
0.21064
0.21064
0.26988
0.26987
0.26987
0.50487
0.50489
0.56052
0.56051
0.50491
0.56054
0.50493
0.56056
0.50494
0.56057
0.50493
0.56056
0.50491
0.56054
0.50489
0.56052
0.50487
0.56051
0.61818
0.61816
0.61820
0.61822
0.61824
0.61822
0.61820
0.61818
0.61816
0.03173
0.03173
0.04182
0.04182
0.03173
0.04182
0.03173
0.04182
0.03173
0.04182
0.03173
0.04182
0.03173
0.04182
0.03173
0.04182
0.03173
0.04182
0.06028
0.06028
0.06028
0.06028
0.06028
0.06028
0.06028
0.06028
0.06028
0.10750
0.10750
0.10750
0.16791
0.16791
0.16791
0.23909
0.23909
0.23909
0.31959
0.31959
0.31959
0.40845
0.40844
0.40844
0.74272
0.74285
0.82435
0.82419
0.74299
0.82450
0.74313
0.82465
0.74320
0.82473
0.74313
0.82465
0.74299
0.82450
0.74285
0.82435
0.74272
0.82419
0.90880
0.90863
0.90897
0.90915
0.90923
0.90915
0.90897
0.90880
0.90863
0.04975
0.04975
0.06454
0.06454
0.04975
0.06454
0.04975
0.06454
0.04975
0.06455
0.04975
0.06454
0.04975
0.06454
0.04975
0.06454
0.04975
0.06454
0.09158
0.09157
0.09158
0.09159
0.09160
0.09159
0.09158
0.09158
0.09157
0.16079
0.16078
0.16078
0.24932
0.24930
0.24930
0.35362
0.35359
0.35359
0.47160
0.47156
0.47156
0.60181
0.60175
0.60175
1.07068
1.07157
1.18886
1.18787
1.07246
1.18986
1.07335
1.19085
1.07379
1.19135
1.07335
1.19085
1.07246
1.18986
1.07157
1.18886
1.07068
1.18787
1.31042
1.30932
1.31153
1.31263
1.31318
1.31263
1.31153
1.31042
1.30932
0.07398
0.07398
0.09526
0.09524
0.07398
0.09528
0.07398
0.09530
0.07398
0.09531
0.07398
0.09530
0.07398
0.09528
0.07398
0.09526
0.07398
0.09524
0.13418
0.13412
0.13423
0.13429
0.13431
0.13429
0.13423
0.13418
0.13412
0.23407
0.23400
0.23400
0.36172
0.36159
0.36159
0.51210
0.51191
0.51191
0.68220
0.68193
0.68193
0.86994
0.86958
0.86958
1.53679
1.54141
1.71023
1.70506
1.54604
1.71540
1.55066
1.72057
1.55297
1.72316
1.55066
1.72057
1.54604
1.71540
1.54141
1.71023
1.53679
1.70506
1.88520
1.87946
1.89093
1.89666
1.89953
1.89666
1.89093
1.88520
1.87946
0.10556
0.10556
0.13620
0.13610
0.10556
0.13629
0.10556
0.13639
0.10556
0.13644
0.10556
0.13639
0.10556
0.13629
0.10556
0.13620
0.10556
0.13610
0.19221
0.19193
0.19249
0.19276
0.19290
0.19276
0.19249
0.19221
0.19193
0.33732
0.33695
0.33695
0.52211
0.52145
0.52145
0.73982
0.73881
0.73881
0.98607
0.98466
0.98466
1.25785
1.25601
1.25601
2.26666
2.28609
2.53777
2.51606
2.30552
2.55949
2.32495
2.58120
2.33466
2.59206
2.32495
2.58120
2.30552
2.55949
2.28609
2.53777
2.26666
2.51606
2.79862
2.77454
2.82270
2.84678
2.85882
2.84678
2.82270
2.79862
2.77454
0.14545
0.14545
0.19112
0.19070
0.14545
0.19153
0.14545
0.19195
0.14545
0.19215
0.14545
0.19195
0.14545
0.19153
0.14545
0.19112
0.14545
0.19070
0.27462
0.27345
0.27579
0.27697
0.27755
0.27697
0.27579
0.27462
0.27345
0.49599
0.49443
0.49443
0.77548
0.77269
0.77269
1.10477
1.10051
1.10051
1.47721
1.47130
1.47130
1.88829
1.88056
1.88056
3.55638
3.62231
4.02537
3.95169
3.68824
4.09905
3.75417
4.17273
3.78713
4.20957
3.75417
4.17273
3.68824
4.09905
3.62231
4.02537
3.55638
3.95169
4.44310
4.36139
4.52482
4.60653
4.64739
4.60653
4.52482
4.44310
4.36139
0.19420
0.19420
0.26734
0.26593
0.19420
0.26874
0.19420
0.27015
0.19420
0.27085
0.19420
0.27015
0.19420
0.26874
0.19420
0.26734
0.19420
0.26593
0.40106
0.39708
0.40504
0.40902
0.41101
0.40902
0.40504
0.40106
0.39708
0.76951
0.76423
0.76423
1.22821
1.21872
1.21872
1.76864
1.75419
1.75419
2.37989
2.35984
2.35984
3.05455
3.02831
3.02831
5.91744
6.09812
6.78550
6.58358
6.27879
6.98743
6.45947
7.18935
6.54981
7.29031
6.45947
7.18935
6.27879
6.98743
6.09812
6.78550
5.91744
6.58358
7.49790
7.27396
7.72184
7.94578
8.05775
7.94578
7.72184
7.49790
7.27396
0.25179
0.25179
0.37652
0.37266
0.25179
0.38037
0.25179
0.38423
0.25179
0.38615
0.25179
0.38423
0.25179
0.38037
0.25179
0.37652
0.25179
0.37266
0.60457
0.59367
0.61548
0.62638
0.63183
0.62638
0.61548
0.60457
0.59367
1.26024
1.24577
1.24577
2.06430
2.03830
2.03830
3.01161
2.97202
2.97202
4.08307
4.02812
4.02812
5.26568
5.19376
5.19376
9.84677
10.24670
11.41414
10.96719
10.64663
11.86110
11.04656
12.30805
11.24652
12.53153
11.04656
12.30805
10.64663
11.86110
10.24670
11.41414
9.84677
10.96719
12.62406
12.12838
13.11975
13.61544
13.86328
13.61544
13.11975
12.62406
12.12838
0.31741
0.31741
0.52925
0.52072
0.31741
0.53778
0.31741
0.54631
0.31741
0.55058
0.31741
0.54631
0.31741
0.53778
0.31741
0.52925
0.31741
0.52072
0.91658
0.89244
0.94071
0.96484
0.97691
0.96484
0.94071
0.91658
0.89244
2.06740
2.03538
2.03538
3.46270
3.40516
3.40516
5.10660
5.01897
5.01897
6.96593
6.84429
6.84429
9.01813
8.85894
8.85894
15.20037
15.91535
17.74083
16.94178
16.63034
18.53989
17.34533
19.33894
17.70282
19.73846
17.34533
19.33894
16.63034
18.53989
15.91535
17.74083
15.20037
16.94178
19.63273
18.74656
20.51891
21.40508
21.84817
21.40508
20.51891
19.63273
18.74656
0.38937
0.38937
0.72061
0.70535
0.38937
0.73586
0.38937
0.75112
0.38937
0.75874
0.38937
0.75112
0.38937
0.73586
0.38937
0.72061
0.38937
0.70535
1.32626
1.28311
1.36940
1.41255
1.43412
1.41255
1.36940
1.32626
1.28311
3.16163
3.10438
3.10438
5.37201
5.26913
5.26913
7.97620
7.81955
7.81955
10.92168
10.70421
10.70421
14.17269
13.88809
13.88809
20.63546
21.66786
24.16080
23.00701
22.70026
25.31459
23.73266
26.46838
24.24886
27.04527
23.73266
26.46838
22.70026
25.31459
21.66786
24.16080
20.63546
23.00701
26.74444
25.46485
28.02403
29.30362
29.94342
29.30362
28.02403
26.74444
25.46485
0.46502
0.46502
0.91738
0.89535
0.46502
0.93940
0.46502
0.96143
0.46502
0.97244
0.46502
0.96143
0.46502
0.93940
0.46502
0.91738
0.46502
0.89535
1.74448
1.68218
1.80677
1.86907
1.90022
1.86907
1.80677
1.74448
1.68218
4.27333
4.19068
4.19068
7.30978
7.16123
7.16123
10.88721
10.66101
10.66101
14.93348
14.61946
14.61946
19.39945
18.98850
18.98850
24.03236
25.23639
28.13998
26.79439
26.44042
29.48558
27.64445
30.83118
28.24647
31.50397
27.64445
30.83118
26.44042
29.48558
25.23639
28.13998
24.03236
26.79439
31.14922
29.65691
32.64153
34.13384
34.88000
34.13384
32.64153
31.14922
29.65691
0.54089
0.54089
1.06776
1.04208
0.54089
1.09345
0.54089
1.11914
0.54089
1.13198
0.54089
1.11914
0.54089
1.09345
0.54089
1.06776
0.54089
1.04208
2.03111
1.95845
2.10376
2.17642
2.21274
2.17642
2.10376
2.03111
1.95845
4.97716
4.88076
4.88076
8.51429
8.34104
8.34104
12.68160
12.41780
12.41780
17.39506
17.02884
17.02884
22.59743
22.11816
22.11816
23.99689
25.13103
28.01377
26.74629
26.26516
29.28125
27.39929
30.54873
27.96636
31.18247
27.39929
30.54873
26.26516
29.28125
25.13103
28.01377
23.99689
26.74629
31.00140
29.59572
32.40708
33.81275
34.51559
33.81275
32.40708
31.00140
29.59572
0.61287
0.61287
1.13596
1.11176
0.61287
1.16016
0.61287
1.18435
0.61287
1.19645
0.61287
1.18435
0.61287
1.16016
0.61287
1.13596
0.61287
1.11176
2.09238
2.02395
2.16082
2.22926
2.26348
2.22926
2.16082
2.09238
2.02395
4.99276
4.90196
4.90196
8.48494
8.32175
8.32175
12.59930
12.35080
12.35080
17.25286
16.90789
16.90789
22.38911
21.93767
21.93767
21.03335
21.89619
24.39110
23.42681
22.75902
25.35539
23.62186
26.31967
24.05328
26.80181
23.62186
26.31967
22.75902
25.35539
21.89619
24.39110
21.03335
23.42681
26.97679
25.90736
28.04621
29.11564
29.65035
29.11564
28.04621
26.97679
25.90736
0.67657
0.67657
1.12929
1.11088
0.67657
1.14769
0.67657
1.16610
0.67657
1.17531
0.67657
1.16610
0.67657
1.14769
0.67657
1.12929
0.67657
1.11088
1.95704
1.90497
2.00910
2.06117
2.08720
2.06117
2.00910
1.95704
1.90497
4.41969
4.35061
4.35061
7.40416
7.28001
7.28001
10.92035
10.73130
10.73130
14.89736
14.63491
14.63491
19.28688
18.94342
18.94342
17.04693
17.57712
19.55820
18.96567
18.10731
20.15072
18.63750
20.74325
18.90259
21.03951
18.63750
20.74325
18.10731
20.15072
17.57712
19.55820
17.04693
18.96567
21.61135
20.95422
22.26849
22.92562
23.25418
22.92562
22.26849
21.61135
20.95422
0.72776
0.72776
1.08723
1.07592
0.72776
1.09855
0.72776
1.10986
0.72776
1.11551
0.72776
1.10986
0.72776
1.09855
0.72776
1.08723
0.72776
1.07592
1.74451
1.71251
1.77650
1.80849
1.82449
1.80849
1.77650
1.74451
1.71251
3.63794
3.59550
3.59550
5.95830
5.88201
5.88201
8.69205
8.57589
8.57589
11.78408
11.62282
11.62282
15.19683
14.98579
14.98579
13.76736
14.03049
15.59045
15.29638
14.29362
15.88451
14.55675
16.17858
14.68831
16.32562
14.55675
16.17858
14.29362
15.88451
14.03049
15.59045
13.76736
15.29638
17.20716
16.88103
17.53329
17.85942
18.02249
17.85942
17.53329
17.20716
16.88103
0.76281
0.76281
1.04587
1.04026
0.76281
1.05149
0.76281
1.05710
0.76281
1.05991
0.76281
1.05710
0.76281
1.05149
0.76281
1.04587
0.76281
1.04026
1.56343
1.54755
1.57931
1.59518
1.60312
1.59518
1.57931
1.56343
1.54755
2.99259
2.97152
2.97152
4.77044
4.73257
4.73257
6.86503
6.80738
6.80738
9.23413
9.15410
9.15410
11.84897
11.74423
11.74423
11.77419
11.87967
13.18482
13.06694
11.98514
13.30270
12.09062
13.42057
12.14335
13.47951
12.09062
13.42057
11.98514
13.30270
11.87967
13.18482
11.77419
13.06694
14.53746
14.40673
14.66819
14.79892
14.86428
14.79892
14.66819
14.53746
14.40673
0.77914
0.77914
1.01597
1.01372
0.77914
1.01822
0.77914
1.02047
0.77914
1.02160
0.77914
1.02047
0.77914
1.01822
0.77914
1.01597
0.77914
1.01372
1.44899
1.44262
1.45535
1.46172
1.46490
1.46172
1.45535
1.44899
1.44262
2.59880
2.59036
2.59036
4.04965
4.03448
4.03448
5.75899
5.73588
5.73588
7.69235
7.66027
7.66027
9.82624
9.78426
9.78426
10.72825
10.76240
11.93662
11.89845
10.79655
11.97478
10.83070
12.01294
10.84777
12.03202
10.83070
12.01294
10.79655
11.97478
10.76240
11.93662
10.72825
11.89845
13.15355
13.11123
13.19588
13.23820
13.25936
13.23820
13.19588
13.15355
13.11123
0.77553
0.77553
0.98860
0.98787
0.77553
0.98932
0.77553
0.99005
0.77553
0.99042
0.77553
0.99005
0.77553
0.98932
0.77553
0.98860
0.77553
0.98787
1.37817
1.37611
1.38023
1.38229
1.38332
1.38229
1.38023
1.37817
1.37611
2.38831
2.38558
2.38558
3.67422
3.66931
3.66931
5.18923
5.18175
5.18175
6.90279
6.89240
6.89240
8.79409
8.78050
8.78050
10.07005
10.07898
11.17558
11.16560
10.08791
11.18556
10.09684
11.19553
10.10130
11.20052
10.09684
11.19553
10.08791
11.18556
10.07898
11.17558
10.07005
11.16560
12.31207
12.30101
12.32314
12.33421
12.33974
12.33421
12.32314
12.31207
12.30101
0.75224
0.75224
0.95122
0.95103
0.75224
0.95141
0.75224
0.95160
0.75224
0.95170
0.75224
0.95160
0.75224
0.95141
0.75224
0.95122
0.75224
0.95103
1.31505
1.31451
1.31559
1.31613
1.31639
1.31613
1.31559
1.31505
1.31451
2.24923
2.24851
2.24851
3.44281
3.44152
3.44152
4.84904
4.84708
4.84708
6.43957
6.43685
6.43685
8.19507
8.19152
8.19152
9.43137
9.43326
10.45878
10.45667
9.43514
10.46089
9.43703
10.46299
9.43797
10.46405
9.43703
10.46299
9.43514
10.46089
9.43326
10.45878
9.43137
10.45667
11.52162
11.51928
11.52395
11.52629
11.52746
11.52629
11.52395
11.52162
11.51928
0.71102
0.71102
0.89711
0.89707
0.71102
0.89715
0.71102
0.89719
0.71102
0.89721
0.71102
0.89719
0.71102
0.89715
0.71102
0.89711
0.71102
0.89707
1.23735
1.23724
1.23746
1.23758
1.23763
1.23758
1.23746
1.23735
1.23724
2.10839
2.10824
2.10824
3.22255
3.22228
3.22228
4.53521
4.53480
4.53480
6.01990
6.01932
6.01932
7.65859
7.65784
7.65784
8.67378
8.67410
9.61697
9.61661
8.67442
9.61733
8.67474
9.61769
8.67491
9.61787
8.67474
9.61769
8.67442
9.61733
8.67410
9.61697
8.67378
9.61661
10.59414
10.59374
10.59454
10.59494
10.59514
10.59494
10.59454
10.59414
10.59374
0.65487
0.65487
0.82596
0.82595
0.65487
0.82597
0.65487
0.82597
0.65487
0.82598
0.65487
0.82597
0.65487
0.82597
0.65487
0.82596
0.65487
0.82595
1.13878
1.13876
1.13880
1.13882
1.13883
1.13882
1.13880
1.13878
1.13876
1.93905
1.93903
1.93903
2.96296
2.96291
2.96291
4.16929
4.16922
4.16922
5.53371
5.53361
5.53361
7.03966
7.03953
7.03953
7.78960
7.78964
8.63642
8.63637
7.78969
8.63647
7.78973
8.63652
7.78975
8.63654
7.78973
8.63652
7.78969
8.63647
7.78964
8.63642
7.78960
8.63637
9.51401
9.51395
9.51406
9.51412
9.51414
9.51412
9.51406
9.51401
9.51395
0.58769
0.58769
0.74134
0.74134
0.58769
0.74134
0.58769
0.74134
0.58769
0.74134
0.58769
0.74134
0.58769
0.74134
0.58769
0.74134
0.58769
0.74134
1.02228
1.02227
1.02228
1.02228
1.02228
1.02228
1.02228
1.02228
1.02227
1.74089
1.74089
1.74089
2.66037
2.66036
2.66036
3.74366
3.74365
3.74365
4.96893
4.96892
4.96892
6.32129
6.32127
6.32127
6.82105
6.82105
7.56263
7.56263
6.82106
7.56264
6.82106
7.56264
6.82106
7.56265
6.82106
7.56264
6.82106
7.56264
6.82105
7.56263
6.82105
7.56263
8.33119
8.33119
8.33120
8.33121
8.33121
8.33121
8.33120
8.33119
8.33119
0.51381
0.51381
0.64837
0.64837
0.51381
0.64837
0.51381
0.64837
0.51381
0.64837
0.51381
0.64837
0.51381
0.64837
0.51381
0.64837
0.51381
0.64837
0.89441
0.89441
0.89441
0.89441
0.89441
0.89441
0.89441
0.89441
0.89441
1.52373
1.52373
1.52373
2.32897
2.32897
2.32897
3.27767
3.27767
3.27767
4.35071
4.35071
4.35071
5.53504
5.53504
5.53504
5.82205
5.82205
6.45514
6.45514
5.82205
6.45514
5.82206
6.45514
5.82206
6.45514
5.82206
6.45514
5.82205
6.45514
5.82205
6.45514
5.82205
6.45514
7.11126
7.11126
7.11126
7.11126
7.11126
7.11126
7.11126
7.11126
7.11126
0.43756
0.43756
0.55244
0.55244
0.43756
0.55244
0.43756
0.55244
0.43756
0.55244
0.43756
0.55244
0.43756
0.55244
0.43756
0.55244
0.43756
0.55244
0.76248
0.76248
0.76248
0.76248
0.76248
0.76248
0.76248
0.76248
0.76248
1.29974
1.29974
1.29974
1.98717
1.98717
1.98717
2.79707
2.79707
2.79707
3.71312
3.71312
3.71312
4.72418
4.72418
4.72418
4.84350
4.84350
5.37031
5.37031
4.84350
5.37031
4.84350
5.37031
4.84350
5.37031
4.84350
5.37031
4.84350
5.37031
4.84350
5.37031
4.84350
5.37031
5.91630
5.91630
5.91630
5.91630
5.91630
5.91630
5.91630
5.91630
5.91630
0.36288
0.36288
0.45847
0.45847
0.36288
0.45847
0.36288
0.45847
0.36288
0.45847
0.36288
0.45847
0.36288
0.45847
0.36288
0.45847
0.36288
0.45847
0.63326
0.63326
0.63326
0.63326
0.63326
0.63326
0.63326
0.63326
0.63326
1.08032
1.08032
1.08032
1.65236
1.65236
1.65236
2.32631
2.32631
2.32631
3.08858
3.08858
3.08858
3.92992
3.92992
3.92992
3.92722
3.92722
4.35452
4.35452
3.92722
4.35452
3.92722
4.35452
3.92722
4.35452
3.92722
4.35452
3.92722
4.35452
3.92722
4.35452
3.92722
4.35452
4.79737
4.79737
4.79737
4.79737
4.79737
4.79737
4.79737
4.79737
4.79737
0.29295
0.29295
0.37048
0.37048
0.29295
0.37048
0.29295
0.37048
0.29295
0.37048
0.29295
0.37048
0.29295
0.37048
0.29295
0.37048
0.29295
0.37048
0.51225
0.51225
0.51225
0.51225
0.51225
0.51225
0.51225
0.51225
0.51225
0.87487
0.87487
0.87487
1.33886
1.33886
1.33886
1.88550
1.88550
1.88550
2.50379
2.50379
2.50379
3.18621
3.18621
3.18621
3.10337
3.10337
3.44121
3.44121
3.10337
3.44121
3.10337
3.44121
3.10337
3.44121
3.10337
3.44121
3.10337
3.44121
3.10337
3.44121
3.10337
3.44121
3.79133
3.79133
3.79133
3.79133
3.79133
3.79133
3.79133
3.79133
3.79133
0.23007
0.23007
0.29137
0.29137
0.23007
0.29137
0.23007
0.29137
0.23007
0.29137
0.23007
0.29137
0.23007
0.29137
0.23007
0.29137
0.23007
0.29137
0.40345
0.40345
0.40345
0.40345
0.40345
0.40345
0.40345
0.40345
0.40345
0.69015
0.69015
0.69015
1.05698
1.05698
1.05698
1.48916
1.48916
1.48916
1.97799
1.97799
1.97799
2.51752
2.51752
2.51752
2.38989
2.38989
2.65023
2.65023
2.38989
2.65023
2.38989
2.65023
2.38989
2.65023
2.38989
2.65023
2.38989
2.65023
2.38989
2.65023
2.38989
2.65023
2.92005
2.92005
2.92005
2.92005
2.92005
2.92005
2.92005
2.92005
2.92005
0.17561
0.17561
0.22285
0.22285
0.17561
0.22285
0.17561
0.22285
0.17561
0.22285
0.17561
0.22285
0.17561
0.22285
0.17561
0.22285
0.17561
0.22285
0.30923
0.30923
0.30923
0.30923
0.30923
0.30923
0.30923
0.30923
0.30923
0.53017
0.53017
0.53017
0.81286
0.81286
0.81286
1.14592
1.14592
1.14592
1.52263
1.52263
1.52263
1.93841
1.93841
1.93841
1.79337
1.79337
1.98893
1.98893
1.79337
1.98893
1.79337
1.98893
1.79337
1.98893
1.79337
1.98893
1.79337
1.98893
1.79337
1.98893
1.79337
1.98893
2.19160
2.19160
2.19160
2.19160
2.19160
2.19160
2.19160
2.19160
2.19160
0.13009
0.13009
0.16557
0.16557
0.13009
0.16557
0.13009
0.16557
0.13009
0.16557
0.13009
0.16557
0.13009
0.16557
0.13009
0.16557
0.13009
0.16557
0.23045
0.23045
0.23045
0.23045
0.23045
0.23045
0.23045
0.23045
0.23045
0.39641
0.39641
0.39641
0.60876
0.60876
0.60876
0.85894
0.85894
0.85894
1.14191
1.14191
1.14191
1.45423
1.45423
1.45423
1.31110
1.31110
1.45429
1.45429
1.31110
1.45429
1.31110
1.45429
1.31110
1.45429
1.31110
1.45429
1.31110
1.45429
1.31110
1.45429
1.31110
1.45429
1.60269
1.60269
1.60269
1.60269
1.60269
1.60269
1.60269
1.60269
1.60269
0.09328
0.09328
0.11926
0.11926
0.09328
0.11926
0.09328
0.11926
0.09328
0.11926
0.09328
0.11926
0.09328
0.11926
0.09328
0.11926
0.09328
0.11926
0.16677
0.16677
0.16677
0.16677
0.16677
0.16677
0.16677
0.16677
0.16677
0.28828
0.28828
0.28828
0.44376
0.44376
0.44376
0.62693
0.62693
0.62693
0.83412
0.83412
0.83412
1.06279
1.06279
1.06279
0.93361
0.93361
1.03579
1.03579
0.93361
1.03579
0.93361
1.03579
0.93361
1.03579
0.93361
1.03579
0.93361
1.03579
0.93361
1.03579
0.93361
1.03579
1.14170
1.14170
1.14170
1.14170
1.14170
1.14170
1.14170
1.14170
1.14170
0.06447
0.06447
0.08301
0.08301
0.06447
0.08301
0.06447
0.08301
0.06447
0.08301
0.06447
0.08301
0.06447
0.08301
0.06447
0.08301
0.06447
0.08301
0.11691
0.11691
0.11691
0.11691
0.11691
0.11691
0.11691
0.11691
0.11691
0.20364
0.20364
0.20364
0.31460
0.31460
0.31460
0.44533
0.44533
0.44533
0.59319
0.59319
0.59319
0.75639
0.75639
0.75639
0.64722
0.64722
0.71831
0.71831
0.64722
0.71831
0.64722
0.71831
0.64722
0.71831
0.64722
0.71831
0.64722
0.71831
0.64722
0.71831
0.64722
0.71831
0.79199
0.79199
0.79199
0.79199
0.79199
0.79199
0.79199
0.79199
0.79199
0.04261
0.04261
0.05551
0.05551
0.04261
0.05551
0.04261
0.05551
0.04261
0.05551
0.04261
0.05551
0.04261
0.05551
0.04261
0.05551
0.04261
0.05551
0.07909
0.07909
0.07909
0.07909
0.07909
0.07909
0.07909
0.07909
0.07909
0.13942
0.13942
0.13942
0.21661
0.21661
0.21661
0.30755
0.30755
0.30755
0.41042
0.41042
0.41042
0.52395
0.52395
0.52395
0.43650
0.43650
0.48470
0.48470
0.43650
0.48470
0.43650
0.48470
0.43650
0.48470
0.43650
0.48470
0.43650
0.48470
0.43650
0.48470
0.43650
0.48470
0.53466
0.53466
0.53466
0.53466
0.53466
0.53466
0.53466
0.53466
0.53466
0.02653
0.02653
0.03527
0.03527
0.02653
0.03527
0.02653
0.03527
0.02653
0.03527
0.02653
0.03527
0.02653
0.03527
0.02653
0.03527
0.02653
0.03527
0.05127
0.05127
0.05127
0.05127
0.05127
0.05127
0.05127
0.05127
0.05127
0.09217
0.09217
0.09217
0.14451
0.14451
0.14451
0.20618
0.20618
0.20618
0.27592
0.27592
0.27592
0.35291
0.35291
0.35291
0.28601
0.28601
0.31786
0.31786
0.28601
0.31786
0.28601
0.31786
0.28601
0.31786
0.28601
0.31786
0.28601
0.31786
0.28601
0.31786
0.28601
0.31786
0.35088
0.35088
0.35088
0.35088
0.35088
0.35088
0.35088
0.35088
0.35088
0.01504
0.01504
0.02082
0.02082
0.01504
0.02082
0.01504
0.02082
0.01504
0.02082
0.01504
0.02082
0.01504
0.02082
0.01504
0.02082
0.01504
0.02082
0.03139
0.03139
0.03139
0.03139
0.03139
0.03139
0.03139
0.03139
0.03139
0.05843
0.05843
0.05843
0.09302
0.09302
0.09302
0.13378
0.13378
0.13378
0.17988
0.17988
0.17988
0.23076
0.23076
0.23076
0.18164
0.18164
0.20216
0.20216
0.18164
0.20216
0.18164
0.20216
0.18164
0.20216
0.18164
0.20216
0.18164
0.20216
0.18164
0.20216
0.18164
0.20216
0.22344
0.22344
0.22344
0.22344
0.22344
0.22344
0.22344
0.22344
0.22344
0.00708
0.00708
0.01080
0.01080
0.00708
0.01080
0.00708
0.01080
0.00708
0.01080
0.00708
0.01080
0.00708
0.01080
0.00708
0.01080
0.00708
0.01080
0.01761
0.01761
0.01761
0.01761
0.01761
0.01761
0.01761
0.01761
0.01761
0.03503
0.03503
0.03503
0.05731
0.05731
0.05731
0.08357
0.08357
0.08357
0.11327
0.11327
0.11327
0.14605
0.14605
0.14605
